 19
 Free_Energy: -873.565220 Electronic_Energy: -873.679856992  Gyration_radius:  2.15615815833
 S	-1.060468 0.000015 0.002087
O	-0.737513 -1.240255 -0.747840
O	-0.737744 1.240823 -0.747030
H	0.845894 -1.929824 -0.680600
O	-0.464303 -0.000369 1.373281
C	-2.825442 -0.000226 0.235486
H	-3.292946 0.000230 -0.749148
H	-3.093163 -0.898505 0.791599
H	-3.093298 0.897455 0.792498
N	2.210321 0.000011 1.080915
H	2.846987 0.000192 1.870896
H	2.322854 -0.849261 0.486117
H	1.198916 -0.000038 1.387326
H	2.322780 0.849094 0.485824
O	1.799646 -2.152332 -0.557045
H	2.133513 -2.420486 -1.415564
O	1.799606 2.152403 -0.557072
H	2.133072 2.419995 -1.415932
H	0.845749 1.930031 -0.680089
 19
 Free_Energy: -873.565219 Electronic_Energy: -873.679856997  Gyration_radius:  2.15615368832
 C	2.825431 -0.000010 0.235555
S	1.060468 -0.000000 0.002088
O	0.737645 -1.240534 -0.747458
O	0.464241 -0.000008 1.373254
O	0.737658 1.240549 -0.747438
H	3.093202 0.897963 0.792137
H	3.093193 -0.897996 0.792122
H	3.292975 -0.000005 -0.749060
N	-2.210386 0.000002 1.080875
H	-2.322903 0.849187 0.485938
H	-2.847013 0.000007 1.870887
H	-2.322911 -0.849181 0.485941
H	-1.198973 -0.000002 1.387242
O	-1.799596 -2.152369 -0.557054
H	-0.845780 -1.929906 -0.680218
H	-2.133138 -2.420191 -1.415809
O	-1.799589 2.152371 -0.557055
H	-0.845771 1.929914 -0.680211
H	-2.133130 2.420175 -1.415817
 19
 Free_Energy: -873.564853 Electronic_Energy: -873.679926460  Gyration_radius:  2.31108015191
 C	-0.359795 0.653014 -1.345699
S	-0.603758 -0.727180 -0.252031
O	-2.012128 -1.071140 -0.226264
O	0.391572 -1.752844 -0.560109
O	-0.250341 -0.102247 1.175005
H	0.685646 0.960732 -1.279230
H	-0.598765 0.306889 -2.352454
H	-1.044609 1.443416 -1.023121
N	-2.745587 1.902081 0.545312
H	-3.506760 2.551420 0.708849
H	-2.231036 1.795965 1.413968
H	-3.143758 0.990974 0.332885
O	3.065891 1.512063 -0.501386
H	3.076272 2.384571 -0.097078
H	3.794572 1.493639 -1.128143
O	2.342197 -0.586100 1.239679
H	2.747654 0.079252 0.657860
H	0.730145 -0.224796 1.345072
H	2.231104 -1.377690 0.695503
 19
 Free_Energy: -873.564729 Electronic_Energy: -873.679942612  Gyration_radius:  2.14915843827
 C	2.832472 -0.143195 0.176099
S	1.065890 0.001371 0.007872
O	0.509357 -0.113668 1.390912
O	0.812420 1.336035 -0.589706
O	0.633467 -1.122476 -0.862557
H	3.270156 -0.065998 -0.819137
H	3.178513 0.668474 0.815837
H	3.052983 -1.112475 0.622997
N	-2.171745 0.030118 1.144431
H	-2.333452 -0.829022 0.577716
H	-1.160116 -0.012267 1.442048
H	-2.249044 0.862002 0.513397
H	-2.802753 0.095698 1.936146
O	-1.918275 -1.998340 -0.675437
H	-0.976099 -1.754233 -0.838695
H	-1.953673 -2.956584 -0.644365
O	-1.781993 2.104069 -0.594050
H	-0.809865 1.945031 -0.654744
H	-2.103316 2.140825 -1.498054
 19
 Free_Energy: -873.564730 Electronic_Energy: -873.679946071  Gyration_radius:  2.1489449119
 C	-2.832737 -0.140970 0.175257
S	-1.065930 0.000946 0.007708
O	-0.634078 -1.126296 -0.858335
O	-0.810261 1.333170 -0.594325
O	-0.510743 -0.109734 1.391761
H	-3.178289 0.673273 0.811997
H	-3.269884 -0.066841 -0.820467
H	-3.054471 -1.108458 0.625454
N	2.170725 0.031149 1.145288
H	2.247744 0.859372 0.509317
H	2.335422 -0.830813 0.584381
H	2.800196 0.103048 1.937696
H	1.158559 -0.010758 1.441692
O	1.781857 2.103035 -0.594967
H	0.810142 1.942637 -0.659166
H	2.106988 2.142203 -1.497553
O	1.918507 -1.997425 -0.672144
H	1.962615 -2.955751 -0.667859
H	0.974952 -1.757268 -0.833304
 19
 Free_Energy: -873.564728 Electronic_Energy: -873.679946095  Gyration_radius:  2.14887176439
 C	2.832629 -0.142234 0.174935
S	1.065889 0.000948 0.007758
O	0.633184 -1.125046 -0.859477
O	0.510814 -0.110911 1.391758
O	0.810989 1.333996 -0.592789
H	3.178723 0.671073 0.812576
H	3.053836 -1.110363 0.624011
H	3.269737 -0.067223 -0.820740
N	-2.170645 0.031263 1.145459
H	-2.335175 -0.830614 0.584349
H	-2.800398 0.103026 1.937659
H	-1.158607 -0.010792 1.442173
H	-2.247456 0.859566 0.509580
O	-1.781335 2.102949 -0.595082
H	-0.809517 1.942915 -0.658739
H	-2.106010 2.141753 -1.497852
O	-1.918948 -1.996994 -0.672351
H	-1.962713 -2.955332 -0.667536
H	-0.975538 -1.756564 -0.833898
 19
 Free_Energy: -873.564728 Electronic_Energy: -873.679946095  Gyration_radius:  2.14887187373
 C	-2.832628 -0.142228 0.174939
S	-1.065889 0.000948 0.007758
O	-0.810985 1.333994 -0.592793
O	-0.510811 -0.110911 1.391757
O	-0.633188 -1.125049 -0.859476
H	-3.053838 -1.110356 0.624015
H	-3.178718 0.671081 0.812581
H	-3.269738 -0.067215 -0.820735
N	2.170648 0.031263 1.145455
H	2.247458 0.859566 0.509575
H	1.158610 -0.010792 1.442168
H	2.335178 -0.830615 0.584347
H	2.800400 0.103028 1.937655
O	1.781334 2.102952 -0.595080
H	2.106009 2.141765 -1.497850
H	0.809516 1.942914 -0.658738
O	1.918943 -1.996999 -0.672350
H	1.962707 -2.955338 -0.667529
H	0.975533 -1.756569 -0.833897
 19
 Free_Energy: -873.564188 Electronic_Energy: -873.678931815  Gyration_radius:  2.155672979
 C	2.829424 -0.000004 0.221762
S	1.061828 0.000000 0.006928
O	0.731635 -1.240139 -0.738664
O	0.480440 -0.000002 1.385576
O	0.731640 1.240144 -0.738659
H	3.103832 0.897775 0.775432
H	3.103828 -0.897787 0.775427
H	3.285831 -0.000002 -0.768070
N	-2.198040 -0.000000 1.080274
H	-2.311418 -0.852766 0.489113
H	-1.188687 0.000000 1.391266
H	-2.311417 0.852767 0.489113
H	-2.839061 0.000001 1.866733
O	-1.838097 -2.081818 -0.655656
H	-0.887293 -1.857970 -0.792964
H	-1.894018 -3.038141 -0.605977
O	-1.838094 2.081819 -0.655656
H	-1.894018 3.038141 -0.605979
H	-0.887289 1.857973 -0.792962
 19
 Free_Energy: -873.564267 Electronic_Energy: -873.679363685  Gyration_radius:  2.12850222476
 C	-2.776486 -0.501475 0.077233
S	-1.065919 -0.013025 0.021526
O	-0.401584 -0.905972 -0.965657
O	-1.046831 1.411955 -0.393021
O	-0.537659 -0.211298 1.405022
H	-3.289243 0.140029 0.792938
H	-3.192574 -0.379857 -0.921883
H	-2.817743 -1.544160 0.391215
N	2.133472 0.154819 1.218353
H	2.107750 0.952813 0.536274
H	2.415272 -0.693541 0.689020
H	2.742345 0.342858 2.007655
H	1.130218 -0.000344 1.504528
O	1.583848 2.027353 -0.688502
H	0.600797 1.967728 -0.624158
H	1.791720 1.731640 -1.579593
O	2.136939 -1.823252 -0.671250
H	2.215522 -2.775014 -0.761059
H	1.197542 -1.598902 -0.863950
 19
 Free_Energy: -873.564053 Electronic_Energy: -873.679560274  Gyration_radius:  2.13323873087
 C	-2.842941 -0.193781 0.080549
S	-1.074423 -0.001070 0.014409
O	-0.571347 -1.061036 -0.900834
O	-0.820765 1.371252 -0.492266
O	-0.582210 -0.186498 1.412116
H	-3.242340 0.572537 0.744513
H	-3.228706 -0.070828 -0.931114
H	-3.061957 -1.191143 0.461090
N	2.113788 0.075497 1.254017
H	2.344835 -0.773811 0.698268
H	1.105069 -0.025404 1.534358
H	2.727128 0.196280 2.053038
H	2.151199 0.894778 0.597511
O	1.798478 1.960807 -0.680258
H	0.814712 1.871894 -0.702593
O	2.002155 -1.853876 -0.681071
H	2.063680 -2.803993 -0.795416
H	2.104088 1.736439 -1.563469
H	1.063710 -1.600615 -0.849638
 19
 Free_Energy: -873.564416 Electronic_Energy: -873.678687880  Gyration_radius:  2.13874559691
 S	-1.048569 -0.016202 0.026436
O	-0.380224 -0.872189 -0.986291
O	-0.986699 1.428669 -0.311138
H	1.104025 -1.797739 -0.792391
O	-0.547160 -0.304727 1.401574
C	-2.775840 -0.449045 0.024048
H	-3.178070 -0.229126 -0.964790
H	-2.856634 -1.512407 0.247169
H	-3.274105 0.147984 0.787292
N	2.121924 0.129239 1.089228
H	2.784094 0.335367 1.829556
H	2.364268 -0.739786 0.580657
H	1.148659 -0.003458 1.456532
H	2.062439 0.923146 0.400415
O	2.056139 -1.993142 -0.630652
H	2.157157 -2.944711 -0.697394
O	1.586718 2.196886 -0.592936
H	0.608541 2.064437 -0.561256
H	1.828111 2.161138 -1.522106
 19
 Free_Energy: -873.563510 Electronic_Energy: -873.678997457  Gyration_radius:  2.11271318411
 S	-1.091500 -0.001572 -0.000066
O	-0.811089 -1.292934 -0.671768
O	-0.562868 1.170510 -0.749436
H	0.917107 -1.680280 -0.905043
O	-0.652837 0.005747 1.431113
C	-2.861493 0.182986 0.035273
H	-3.216745 0.193114 -0.995376
H	-3.278482 -0.663871 0.580497
H	-3.095597 1.122416 0.536158
N	2.016257 -0.177195 1.426281
H	2.555328 -0.352051 2.267687
H	0.976763 -0.116890 1.615423
H	2.289160 0.700806 0.950142
O	1.897371 -1.656641 -0.850469
H	2.134398 -0.923720 0.700460
O	2.084327 1.628638 -0.630042
H	2.321668 2.518469 -0.899583
H	1.108763 1.541846 -0.764048
H	2.167556 -1.014797 -1.516050
 19
 Free_Energy: -873.562894 Electronic_Energy: -873.678577321  Gyration_radius:  2.11925027993
 S	-1.076685 -0.000301 0.015377
O	-0.993265 1.433593 -0.346279
O	-0.571398 -0.275250 1.396617
H	0.708105 1.907496 -0.686727
O	-0.431324 -0.893063 -0.988273
C	-2.806185 -0.424323 0.038471
H	-3.299816 0.211529 0.773350
H	-3.208003 -0.246564 -0.959101
H	-2.894518 -1.475674 0.311505
N	2.087687 0.120675 1.311226
H	2.481647 -0.723859 0.864891
H	2.573735 0.380744 2.162783
H	2.109208 0.883076 0.588679
H	1.065698 -0.099002 1.478555
O	1.693203 1.900541 -0.734079
H	1.892502 1.466017 -1.574646
O	2.121861 -1.726104 -0.670190
H	2.302701 -2.582807 -1.060048
H	1.166386 -1.532662 -0.817052
 19
 Free_Energy: -873.562614 Electronic_Energy: -873.678485290  Gyration_radius:  2.10052655583
 S	1.102527 -0.005046 -0.011556
O	0.722835 -0.771707 -1.216920
O	0.756645 -0.721051 1.257737
H	-1.083950 -0.988262 -1.554370
O	0.570991 1.385336 -0.014760
C	2.877491 0.135578 -0.020478
H	3.296224 -0.870006 -0.021977
H	3.162702 0.676049 -0.922737
H	3.177004 0.683976 0.872040
N	-1.921425 -0.831268 1.316635
H	-2.432467 -1.402063 1.981123
H	-2.200859 0.157438 1.350051
H	-0.869764 -0.871612 1.453790
O	-2.045891 -0.935925 -1.382442
H	-2.105999 -1.098473 0.308043
O	-2.086190 1.620159 0.005259
H	-2.387775 2.530515 -0.027308
H	-2.259793 0.003272 -1.465958
H	-1.097839 1.650817 -0.072370
 19
 Free_Energy: -873.561810 Electronic_Energy: -873.678997860  Gyration_radius:  2.1114943706
 C	-2.857878 0.183417 0.036885
S	-1.087716 -0.001290 0.001566
O	-0.811929 -1.351069 -0.547388
O	-0.561925 1.096020 -0.854876
O	-0.635925 0.137352 1.421200
H	-3.088947 1.175800 0.423345
H	-3.226615 0.066407 -0.981928
H	-3.262630 -0.591738 0.687092
N	2.025818 -0.170984 1.419861
H	2.555868 -0.390204 2.256337
H	0.987476 -0.076699 1.605849
H	2.326827 0.707152 0.964647
O	2.067418 1.647602 -0.635247
H	2.281659 2.540487 -0.912821
H	1.098692 1.519173 -0.786015
O	1.883899 -1.674431 -0.845759
H	2.123932 -0.905201 0.675987
H	0.902151 -1.707957 -0.876461
H	2.139278 -1.063981 -1.544857
 19
 Free_Energy: -873.562380 Electronic_Energy: -873.677843221  Gyration_radius:  2.1238756978
 S	-1.025735 0.030839 0.028699
O	-0.441462 -0.727540 -1.112679
O	-1.025102 1.494516 -0.199979
H	0.908191 -1.788050 -0.722810
O	-0.402402 -0.346201 1.331472
C	-2.721220 -0.502227 0.144280
H	-3.193936 -0.357837 -0.826681
H	-2.666479 -1.558673 0.406830
H	-3.221417 0.073634 0.922197
N	2.230753 0.048200 1.017291
H	2.187221 0.886418 0.389800
H	2.916461 0.160067 1.756339
H	1.252736 -0.075358 1.387221
H	2.399397 -0.805989 0.443722
O	1.808541 -2.155242 -0.550443
H	2.164524 -2.381705 -1.413214
O	1.568699 2.197323 -0.568867
H	0.591118 2.098841 -0.468504
H	1.719809 2.228323 -1.516845
 19
 Free_Energy: -873.561514 Electronic_Energy: -873.678840438  Gyration_radius:  2.10690263602
 C	2.869938 0.154548 0.017752
S	1.097240 -0.003467 -0.003694
O	0.572800 1.242288 -0.627175
O	0.782589 -1.220179 -0.787583
O	0.681438 -0.123914 1.428809
H	3.283775 -0.744042 0.475150
H	3.208599 0.255535 -1.013359
H	3.124965 1.040397 0.599075
N	-1.990276 -0.281000 1.464551
H	-2.137515 -0.959800 0.678851
H	-0.941955 -0.238929 1.623059
H	-2.276039 0.630466 1.072477
H	-2.502833 -0.525964 2.305076
O	-1.944049 -1.500707 -0.972231
H	-0.966332 -1.549284 -1.051563
H	-2.194427 -0.723646 -1.486210
O	-2.088156 1.589516 -0.543178
H	-2.373283 2.455234 -0.842270
H	-1.105469 1.559176 -0.648688
 19
 Free_Energy: -873.561528 Electronic_Energy: -873.678592347  Gyration_radius:  2.10104922106
 C	-2.879135 0.079286 -0.016571
S	-1.101535 -0.004307 -0.009532
O	-0.710184 -0.975033 -1.057473
O	-0.617458 1.377747 -0.280427
O	-0.719619 -0.468252 1.361845
H	-3.189758 0.799006 0.740551
H	-3.194236 0.398526 -1.009592
H	-3.261451 -0.915344 0.211567
N	1.949056 -0.698260 1.371542
H	2.269257 0.277156 1.321314
H	0.899077 -0.682170 1.516528
H	2.110028 -1.074968 0.402882
H	2.431603 -1.231151 2.087676
O	2.049291 1.630116 -0.119421
H	2.375092 2.513663 -0.305331
H	1.062919 1.661995 -0.190325
O	2.049718 -1.065752 -1.309680
H	1.081022 -1.125346 -1.436179
H	2.258451 -0.130953 -1.446693
 19
 Free_Energy: -873.561471 Electronic_Energy: -873.678315157  Gyration_radius:  2.09928580583
 C	2.879673 0.055628 -0.012535
S	1.101009 -0.004586 -0.013154
O	0.633439 1.389547 -0.239214
O	0.693429 -0.933659 -1.092894
O	0.711781 -0.507087 1.344578
H	3.250965 -0.954438 0.160084
H	3.203341 0.427590 -0.984708
H	3.194714 0.727949 0.785582
N	-1.941743 -0.844315 1.307157
H	-2.444535 -1.442342 1.954519
H	-2.252157 0.134203 1.357587
H	-0.894509 -0.840781 1.471881
O	-2.029159 1.630201 0.031660
H	-2.337478 2.538389 0.002724
H	-1.043850 1.659505 -0.066078
O	-2.076253 -0.899191 -1.402765
H	-2.091981 -1.107017 0.294084
H	-2.235106 0.055942 -1.393256
H	-1.117281 -0.987676 -1.577764
 19
 Free_Energy: -873.561404 Electronic_Energy: -873.678016028  Gyration_radius:  2.13139471513
 C	-2.833745 -0.315741 0.093501
S	-1.083596 -0.011765 -0.008303
O	-0.494329 -1.089626 -0.826594
O	-0.913380 1.326395 -0.606076
O	-0.585634 -0.073315 1.418924
H	-3.273786 0.487567 0.683086
H	-3.233177 -0.316584 -0.919825
H	-2.987655 -1.279973 0.576149
N	2.059488 0.155575 1.305001
H	2.539134 0.343590 2.179655
H	2.375836 -0.704720 0.826899
H	0.998238 0.077502 1.470490
O	2.129960 -1.784974 -0.653610
H	2.345996 -2.706536 -0.825923
H	1.162972 -1.680057 -0.791248
O	1.735979 1.929522 -0.716229
H	0.762164 1.855633 -0.805554
H	2.147365 0.937920 0.616857
H	2.105738 1.515298 -1.505084
 19
 Free_Energy: -873.561012 Electronic_Energy: -873.678017100  Gyration_radius:  2.09788359385
 S	-1.099775 0.001575 0.014433
O	-0.692946 -0.788683 1.200117
O	-0.698214 -0.664463 -1.267987
H	1.104179 -0.832079 1.623045
O	-0.643520 1.415937 0.066283
C	-2.879261 0.042826 -0.002818
H	-3.239823 -0.985642 -0.049494
H	-3.208926 0.527612 0.917274
H	-3.199836 0.609257 -0.878146
N	1.945509 -0.972515 -1.233075
H	2.394215 -1.656706 -1.832690
H	2.262522 -0.014741 -1.413604
H	0.881593 -0.961541 -1.341766
O	2.070039 -0.748098 1.486717
H	2.120446 -1.131764 -0.192165
O	2.024414 1.606840 -0.170901
H	1.048539 1.704092 -0.066705
H	2.392528 2.489823 -0.240587
H	2.219774 0.204873 1.378515
 19
 Free_Energy: -873.561214 Electronic_Energy: -873.675284061  Gyration_radius:  2.08575439116
 C	-2.712960 -0.582550 -0.144845
S	-1.036483 -0.021323 0.065790
O	-0.553848 -0.580505 1.342624
O	-0.258152 -0.507496 -1.115929
O	-1.093439 1.474248 0.065894
H	-3.099451 -0.181014 -1.081211
H	-2.697563 -1.672126 -0.167372
H	-3.295641 -0.224262 0.703987
N	1.440779 1.858495 -0.682046
H	0.417305 1.958732 -0.423408
H	1.464379 1.306794 -1.539540
H	1.907974 2.751382 -0.805261
H	1.875497 1.271254 0.098541
O	2.196499 0.190267 1.248603
H	1.326903 0.000017 1.645806
H	2.384349 -0.619112 0.730119
O	2.111680 -1.772452 -0.682426
H	1.200771 -1.475828 -0.896183
H	2.069594 -2.721339 -0.544857
 19
 Free_Energy: -873.559318 Electronic_Energy: -873.676541146  Gyration_radius:  2.11031674599
 S	-1.107700 0.005974 0.015685
O	-0.622800 -0.216124 1.398856
O	-0.727941 -1.124943 -0.896829
H	1.234552 -0.206452 1.821775
O	-0.709796 1.320343 -0.545361
C	-2.887114 -0.000706 0.069124
H	-3.215384 -0.951795 0.489393
H	-3.212349 0.829856 0.696220
H	-3.252542 0.117150 -0.951588
N	1.945773 -1.436706 -0.821688
H	0.892233 -1.426936 -0.977182
H	2.312877 -2.381717 -0.897494
H	2.390811 -0.822700 -1.500109
O	2.167550 -0.173957 1.507292
H	2.220248 0.674210 1.032396
H	2.116360 -1.037313 0.149737
O	1.976559 1.581397 -0.630013
H	2.279537 2.476112 -0.800443
H	0.990546 1.601467 -0.648137
 19
 Free_Energy: -873.559893 Electronic_Energy: -873.674502850  Gyration_radius:  2.23135370096
 C	-2.939532 0.093621 0.070383
S	-1.161998 0.061629 -0.047656
O	-0.653383 -0.407960 1.276105
O	-0.828791 -0.914512 -1.126162
O	-0.750275 1.448816 -0.363370
H	-3.333544 0.428997 -0.889049
H	-3.286555 -0.913521 0.301018
H	-3.212811 0.789151 0.863956
N	1.251346 -2.010733 0.204230
H	0.709115 -1.569036 0.976542
H	2.109648 -1.432746 0.021684
H	1.472356 -2.983262 0.390788
H	0.585458 -1.890778 -0.588994
O	1.855568 2.008650 0.126045
H	0.910695 1.854740 -0.109982
H	1.838662 2.406330 1.000053
O	3.260070 -0.220928 -0.170556
H	2.787347 0.645044 -0.051064
H	3.823855 -0.120112 -0.940870
 19
 Free_Energy: -873.559935 Electronic_Energy: -873.674490599  Gyration_radius:  2.23042409358
 C	2.939797 0.090879 0.066096
S	1.161916 0.059364 -0.050117
O	0.827766 -0.931548 -1.114724
O	0.652509 -0.390542 1.279784
O	0.751391 1.442414 -0.385823
H	3.214964 0.797082 0.849441
H	3.285980 -0.913327 0.309811
H	3.332805 0.412550 -0.898456
N	-1.258508 -2.000803 0.221489
H	-0.723781 -1.561451 0.998604
H	-1.486142 -2.971948 0.407386
H	-2.112504 -1.420110 0.027918
H	-0.583703 -1.885467 -0.565647
O	-3.264981 -0.213628 -0.192529
H	-3.798595 -0.121803 -0.985062
O	-1.846076 2.005817 0.144697
H	-1.815606 2.369236 1.033114
H	-0.904933 1.854255 -0.107242
H	-2.793246 0.651406 -0.066231
 19
 Free_Energy: -873.559874 Electronic_Energy: -873.674502549  Gyration_radius:  2.23118117906
 C	2.939225 0.093923 0.072969
S	1.161907 0.061482 -0.047863
O	0.750277 1.447868 -0.367188
O	0.830475 -0.916920 -1.125006
O	0.651225 -0.405468 1.275998
H	3.286012 -0.912710 0.306198
H	3.334837 0.427462 -0.886453
H	3.211051 0.791069 0.865634
N	-1.251514 -2.010557 0.203696
H	-1.473304 -2.982935 0.390096
H	-2.109167 -1.431927 0.019823
H	-0.710771 -1.568917 0.976919
H	-0.583994 -1.890920 -0.588321
O	-3.259999 -0.220470 -0.169510
H	-3.824611 -0.120273 -0.939302
O	-1.854765 2.008852 0.125785
H	-1.835203 2.405707 1.000116
H	-2.787172 0.645614 -0.050987
H	-0.910644 1.853570 -0.112241
 19
 Free_Energy: -873.559826 Electronic_Energy: -873.674315685  Gyration_radius:  2.24312216486
 C	-2.954573 0.062285 -0.003288
S	-1.172813 0.070308 -0.024607
O	-0.761244 -0.785107 -1.178698
O	-0.774624 1.487660 -0.173846
O	-0.727583 -0.531274 1.267293
H	-3.283415 0.672463 0.838031
H	-3.306391 0.481782 -0.945794
H	-3.289969 -0.968386 0.111564
N	1.241350 -2.016700 0.135377
H	2.115570 -1.443271 0.034605
H	0.592848 -1.785144 -0.654511
H	1.436402 -3.009796 0.202852
H	0.690223 -1.658830 0.941265
O	3.294706 -0.245647 -0.084793
H	3.891303 -0.155173 -0.831557
O	1.879029 2.002336 0.051333
H	2.816540 0.620017 -0.000617
H	1.941434 2.586405 0.810881
H	0.916188 1.854451 -0.091234
 19
 Free_Energy: -873.559848 Electronic_Energy: -873.674495429  Gyration_radius:  2.2311630704
 S	-1.160749 0.062190 -0.046504
O	-0.743325 1.447199 -0.364367
O	-0.655178 -0.408575 1.277590
H	0.917336 1.855148 -0.114683
O	-0.831028 -0.916217 -1.124358
C	-2.938295 0.101409 0.069723
H	-3.209616 0.798202 0.862827
H	-3.330150 0.437947 -0.890187
H	-3.289266 -0.904346 0.300316
N	1.246768 -2.016173 0.201058
H	1.470117 -2.989792 0.379014
H	0.576867 -1.889778 -0.588523
H	0.709268 -1.580930 0.979191
H	2.103896 -1.435610 0.019764
O	1.861124 2.012112 0.123321
H	1.840317 2.423775 0.990876
O	3.254837 -0.225384 -0.167266
H	2.785593 0.640576 -0.035563
H	3.808572 -0.118554 -0.944074
 19
 Free_Energy: -873.559802 Electronic_Energy: -873.674425318  Gyration_radius:  2.23391623806
 C	-2.941331 0.124754 0.086782
S	-1.166315 0.056122 -0.050242
O	-0.648866 -0.390994 1.278030
O	-0.861187 -0.948728 -1.109702
O	-0.735122 1.429155 -0.401528
H	-3.343107 0.386846 -0.892036
H	-3.307781 -0.849442 0.411216
H	-3.190901 0.890326 0.821746
N	1.252274 -2.000154 0.206345
H	0.588519 -1.894912 -0.590064
H	1.471208 -2.969943 0.409350
H	2.112729 -1.428039 0.019006
H	0.708005 -1.546164 0.971167
O	3.274167 -0.220026 -0.170259
H	3.833262 -0.113551 -0.943242
O	1.859920 2.000972 0.128191
H	0.916774 1.842869 -0.111941
H	2.802303 0.644602 -0.041810
H	1.840802 2.428995 0.987510
 19
 Free_Energy: -873.559718 Electronic_Energy: -873.674310367  Gyration_radius:  2.23663152498
 C	2.945318 0.120536 0.052818
S	1.167286 0.063168 -0.042926
O	0.833839 -0.895660 -1.136463
O	0.682070 -0.439920 1.277156
O	0.729198 1.450162 -0.325105
H	3.218318 0.803791 0.857072
H	3.310656 -0.885621 0.257961
H	3.321303 0.481633 -0.904506
N	-1.238739 -2.015146 0.192286
H	-1.456546 -2.990869 0.365700
H	-0.580226 -1.882921 -0.604905
H	-2.100374 -1.436730 0.025636
H	-0.689381 -1.585934 0.966818
O	-3.267088 -0.237514 -0.153610
H	-3.825956 -0.147595 -0.928978
O	-1.880588 2.007331 0.105283
H	-1.922651 2.494443 0.931602
H	-0.924924 1.811136 -0.043617
H	-2.806978 0.635596 -0.036979
 19
 Free_Energy: -873.559756 Electronic_Energy: -873.674403331  Gyration_radius:  2.2248232149
 C	2.932822 0.120766 0.115215
S	1.162082 0.047399 -0.067024
O	0.883778 -1.020899 -1.067035
O	0.607762 -0.315861 1.274846
O	0.740298 1.397740 -0.508891
H	3.164639 0.885100 0.856932
H	3.286081 -0.857102 0.442037
H	3.357959 0.382679 -0.853801
N	-1.283308 -1.969303 0.263865
H	-1.523036 -2.915261 0.542031
H	-0.738549 -1.464474 0.997050
H	-0.610035 -1.941990 -0.527464
H	-2.131159 -1.399120 0.020638
O	-3.266936 -0.187061 -0.244554
H	-3.789904 -0.075728 -1.041573
O	-1.815283 1.988725 0.193943
H	-0.889824 1.835234 -0.108764
H	-2.791453 0.673227 -0.085938
H	-1.738762 2.278414 1.106416
 19
 Free_Energy: -873.558923 Electronic_Energy: -873.675783800  Gyration_radius:  2.13711583376
 C	2.847931 0.102218 0.179668
S	1.077214 0.031481 0.015489
O	0.520656 -0.113059 1.382447
O	0.670064 1.285555 -0.661000
O	0.806622 -1.183717 -0.824557
H	3.277186 0.183368 -0.818689
H	3.092678 0.978677 0.779989
H	3.181485 -0.810122 0.674506
N	-1.716165 -1.929374 -0.610589
H	-0.674011 -1.710255 -0.750468
H	-2.217607 -1.795861 -1.483694
H	-1.838507 -2.883675 -0.284170
O	-1.999252 1.896203 -0.636476
H	-1.025732 1.780093 -0.712966
H	-2.156609 2.833803 -0.506117
O	-2.267365 -0.093001 1.201520
H	-1.357736 -0.024283 1.554182
H	-2.370799 0.727319 0.672049
H	-2.065989 -1.226301 0.128194
 19
 Free_Energy: -873.558827 Electronic_Energy: -873.675212107  Gyration_radius:  2.12161844967
 C	-2.762133 -0.077511 0.268965
S	-1.000084 -0.096478 0.011099
O	-0.738194 0.546813 -1.298739
O	-0.406720 0.686064 1.145967
O	-0.596432 -1.527170 0.054847
H	-2.969986 -0.549495 1.229333
H	-3.100022 0.958536 0.261668
H	-3.220428 -0.639599 -0.544980
N	2.265083 0.231851 0.899213
H	2.277565 1.055077 0.265087
H	1.304211 0.276762 1.305982
H	2.327875 -0.658074 0.341518
H	2.989814 0.280202 1.608337
O	1.958541 -2.097368 -0.474279
H	0.977328 -2.051426 -0.360271
H	2.118043 -2.229280 -1.411910
O	1.345483 2.346068 -0.626554
H	0.691439 2.477570 0.073678
H	0.821299 1.830225 -1.264246
 19
 Free_Energy: -873.558992 Electronic_Energy: -873.673503606  Gyration_radius:  2.18752375358
 C	-2.863468 0.023875 0.349836
S	-1.143722 -0.035796 -0.114123
O	-0.893503 1.180281 -0.940395
O	-0.364300 0.036517 1.173595
O	-0.934358 -1.308836 -0.823925
H	-3.073516 -0.841625 0.978302
H	-3.045013 0.951572 0.892301
H	-3.456302 -0.011924 -0.564395
N	1.396278 1.904274 0.277829
H	1.634813 2.845755 0.571840
H	2.236408 1.351653 -0.010717
H	0.905072 1.364850 1.018287
H	0.672780 1.894116 -0.475522
O	1.576414 -1.925094 0.347626
H	0.903938 -2.059631 -0.341157
H	1.051663 -1.468715 1.025148
O	3.239320 0.025162 -0.359748
H	2.716837 -0.792251 -0.148627
H	4.171154 -0.198472 -0.340539
 19
 Free_Energy: -873.558993 Electronic_Energy: -873.673503606  Gyration_radius:  2.23832492167
 C	2.931514 -0.049553 0.117239
S	1.169519 0.120562 -0.033647
O	0.568128 0.190560 1.300264
O	0.892066 1.218362 -0.951993
O	0.812051 -1.260684 -0.694684
H	3.343555 -0.216582 -0.877800
H	3.307918 0.883663 0.537121
H	3.144424 -0.889088 0.777957
N	-1.827129 2.000824 0.270876
H	-1.297529 1.747605 1.102262
H	-1.129684 2.123373 -0.461594
H	-2.788151 0.619141 -0.187138
H	-2.273627 2.896229 0.437870
O	-3.171607 -0.268454 -0.436504
H	-4.114545 -0.250528 -0.263303
O	-1.376134 -2.070404 0.281413
H	-1.286461 -1.929466 1.229626
H	-2.121332 -1.481496 -0.006497
H	-0.092081 -1.615328 -0.337686
 19
 Free_Energy: -873.558655 Electronic_Energy: -873.673498950  Gyration_radius:  2.18746842067
 C	2.864070 0.024874 0.350218
S	1.144656 -0.036054 -0.114936
O	0.894281 1.181437 -0.938694
O	0.935232 -1.308037 -0.825653
O	0.364678 0.033874 1.173156
H	3.075674 -0.842944 0.974936
H	3.457379 -0.005617 -0.563931
H	3.043193 0.950650 0.896716
N	-1.398748 1.901005 0.279692
H	-1.638702 2.842747 0.571642
H	-0.677279 1.891404 -0.475794
H	-0.904015 1.365450 1.020527
H	-2.238533 1.345047 -0.006423
O	-1.576896 -1.919200 0.352801
H	-1.036049 -1.456703 1.013957
H	-0.917919 -2.072389 -0.344524
O	-3.240138 0.023000 -0.367940
H	-4.172127 -0.193277 -0.307571
H	-2.716561 -0.792372 -0.149063
 19
 Free_Energy: -873.558560 Electronic_Energy: -873.673987999  Gyration_radius:  2.18589674421
 C	-2.873003 -0.036373 0.289480
S	-1.136723 -0.026114 -0.111117
O	-0.903647 1.205123 -0.919910
O	-0.404410 0.053556 1.199148
O	-0.858318 -1.282156 -0.833879
H	-3.073172 -0.915873 0.901471
H	-3.107488 0.878030 0.834139
H	-3.430769 -0.083677 -0.645984
N	1.393450 1.896846 0.310135
H	0.906774 1.356865 1.052498
H	0.646867 1.939318 -0.418328
H	1.690317 2.814971 0.624395
H	2.197185 1.312696 -0.029067
O	3.253493 0.026900 -0.315767
H	3.767672 -0.155495 -1.104933
O	1.584303 -1.937359 0.361723
H	1.125923 -1.555639 1.124103
H	0.856381 -1.974996 -0.286857
H	2.720390 -0.786561 -0.111897
 19
 Free_Energy: -873.557358 Electronic_Energy: -873.675661759  Gyration_radius:  2.08974120296
 C	2.749325 -0.542392 -0.155592
S	1.061053 -0.020008 0.054824
O	0.284433 -0.606399 -1.080371
O	0.615123 -0.518721 1.373303
O	1.069064 1.471945 -0.041797
H	3.337403 -0.109783 0.653775
H	2.770722 -1.631303 -0.106351
H	3.104698 -0.192074 -1.124237
N	-1.522894 1.758636 -0.696754
H	-1.895867 1.208551 0.142458
H	-0.489541 1.880875 -0.506798
H	-1.606159 1.171364 -1.527772
H	-2.004077 2.643328 -0.825907
O	-2.130424 0.164077 1.357447
H	-1.229044 -0.054243 1.665936
O	-2.196110 -1.637152 -0.691785
H	-2.400015 -0.635415 0.865616
H	-1.246815 -1.423175 -0.825679
H	-2.290527 -2.584100 -0.811777
 19
 Free_Energy: -873.558285 Electronic_Energy: -873.673237171  Gyration_radius:  2.23964795968
 C	-2.941217 0.072761 0.018178
S	-1.153567 0.073593 -0.030112
O	-0.755318 1.499090 -0.105253
O	-0.701376 -0.568461 1.245752
O	-0.759538 -0.727370 -1.224429
H	-3.283743 -0.961705 0.083443
H	-3.250957 0.637651 0.901250
H	-3.308388 0.547275 -0.893875
N	1.226985 -2.113437 0.116205
H	2.111999 -1.558692 0.027981
H	0.604218 -1.634368 0.816316
H	0.678129 -2.002961 -0.746039
H	1.423163 -3.080074 0.361175
O	3.221314 -0.223846 -0.071863
H	3.973387 -0.082488 -0.649433
O	1.868865 2.049920 0.023052
H	0.896510 1.885440 -0.075493
H	1.958456 2.552473 0.843316
H	2.721141 0.642788 -0.047437
 19
 Free_Energy: -873.558457 Electronic_Energy: -873.673034896  Gyration_radius:  2.1977361024
 C	-2.880824 0.042150 0.334080
S	-1.153781 -0.034251 -0.104410
O	-0.942004 -1.351323 -0.735437
O	-0.889798 1.131120 -0.993555
O	-0.391953 0.094824 1.185238
H	-3.066902 0.996658 0.827120
H	-3.465762 -0.038560 -0.582528
H	-3.093836 -0.791351 1.003653
N	1.386703 1.890733 0.253327
H	1.597752 2.821659 0.597998
H	2.237633 1.338380 0.000933
H	0.815684 1.328764 0.922598
H	0.739295 1.913689 -0.554756
O	3.273817 0.067034 -0.299323
H	4.205593 -0.156897 -0.335322
O	1.608656 -1.943598 0.275895
H	2.766257 -0.770243 -0.145094
H	1.161438 -1.595093 1.058767
H	0.871630 -1.971478 -0.363112
 19
 Free_Energy: -873.557900 Electronic_Energy: -873.674863403  Gyration_radius:  2.12146111823
 C	2.820907 0.029417 0.276270
S	1.060410 0.045492 0.013244
O	0.797296 -1.065764 -0.966144
O	0.412731 -0.228866 1.318119
O	0.732762 1.376391 -0.543845
H	3.060667 0.819803 0.987779
H	3.097196 -0.946862 0.674870
H	3.307782 0.210293 -0.682416
N	-1.647469 -1.975527 -0.575180
H	-2.043803 -1.279955 0.137108
H	-1.605836 -2.917461 -0.198516
H	-2.211542 -1.961930 -1.419159
H	-0.652073 -1.616363 -0.784124
O	-2.315399 -0.063887 1.133828
H	-1.424529 -0.036749 1.535541
O	-1.932359 1.890452 -0.630377
H	-2.168463 2.806652 -0.471980
H	-2.329372 0.730138 0.556971
H	-0.950005 1.850151 -0.671981
 19
 Free_Energy: -873.557698 Electronic_Energy: -873.674007763  Gyration_radius:  2.19071198118
 C	-2.884415 -0.070437 0.246271
S	-1.137815 -0.027641 -0.102601
O	-0.442968 0.089562 1.221832
O	-0.815844 -1.291866 -0.794684
O	-0.907621 1.190018 -0.932543
H	-3.413459 -0.148044 -0.703735
H	-3.082056 -0.943082 0.868766
H	-3.155756 0.847988 0.766485
N	1.365984 1.911352 0.313099
H	2.178480 1.332297 -0.013033
H	1.649836 2.835866 0.620300
H	0.626309 1.934727 -0.422681
H	0.875403 1.375980 1.056840
O	3.258760 0.048386 -0.318141
H	2.729720 -0.768833 -0.118117
H	3.755279 -0.122769 -1.121221
O	1.619964 -1.945469 0.333418
H	1.264914 -1.686997 1.193080
H	0.822642 -1.896764 -0.233437
 19
 Free_Energy: -873.557758 Electronic_Energy: -873.671800013  Gyration_radius:  2.13980452085
 C	-2.817465 -0.095831 0.281291
S	-1.056980 0.023620 0.032764
O	-0.713406 -1.102369 -0.921424
O	-0.809748 1.352994 -0.573084
O	-0.403943 -0.162811 1.345281
H	-3.113948 0.712124 0.951997
H	-3.297147 0.012990 -0.690829
H	-3.035651 -1.067578 0.722441
N	1.677770 -2.005579 -0.596720
H	0.667752 -1.639014 -0.745679
H	1.759348 -2.953882 -0.242781
H	2.186800 -1.946637 -1.478865
H	2.112745 -1.306261 0.079812
O	2.454950 -0.027436 1.074509
H	1.624969 0.027096 1.582335
O	1.722737 2.102295 -0.521515
H	0.764395 1.894163 -0.577801
H	2.419086 0.784981 0.526871
H	1.979005 2.416762 -1.392565
 19
 Free_Energy: -873.557053 Electronic_Energy: -873.670819768  Gyration_radius:  2.24104379447
 C	-2.974499 0.044529 0.102722
S	-1.206271 0.043557 -0.091363
O	-0.820118 1.385608 -0.590568
O	-0.651123 -0.235314 1.280326
O	-0.905710 -1.069730 -1.027658
H	-3.193398 -0.905399 0.585136
H	-3.259078 0.878208 0.743553
H	-3.436451 0.115835 -0.881736
N	1.347085 -1.769127 0.329005
H	0.679064 -2.015693 -0.416511
H	0.735813 -1.155059 0.947620
H	1.679176 -2.571230 0.852326
H	2.147086 -1.205798 -0.045301
O	3.485849 -0.137744 -0.325816
H	4.015033 -0.021713 -1.116861
O	1.744178 1.758415 0.289411
H	0.847888 1.756173 -0.119008
H	3.018973 0.706450 -0.129640
H	1.659028 2.228152 1.117303
 19
 Free_Energy: -873.556795 Electronic_Energy: -873.672048877  Gyration_radius:  2.08367677395
 C	2.668954 -0.469524 -0.276821
S	1.025978 0.108850 0.104070